                         Program Version 2.9.1 -  RELEASE  -
|  1> ! BP cc-pVTZ cc-pVTZ/J normalSCF Split-RI-J
|  2>
|  3> #%basis
|  4> # NewGTO Pt "def2-QZVP" end
|  5> # NewAuxGTO Pt "def2-QZVP/J" end
|  6> #end
|  7>
|  8>
|  9>
| 10> %method
| 11>  frozencore FC_ELECTRONS
| 12>  method dft
| 13>  runtyp opt
| 14> end
| 15>
| 16> %scf
| 17>  hftyp uhf
| 18> end
| 19>
| 20>
| 21> %coords
| 22>  CTyp   xyz
| 23>  Charge 0
| 24>  Mult   1
| 25>  Units	Angs
| 26>  coords
| 27> C         -4.23708       -0.05019        1.93381
| 28> C         -3.59413        0.94015        2.66812
| 29> C         -3.55736       -0.71588        0.91881
| 30> C         -2.22080       -0.39491        0.62776
| 31> C         -1.54435        0.61224        1.36394
| 32> C         -2.26549        1.27478        2.39508
| 33> C         -1.56577       -1.07620       -0.39198
| 34> C         -0.17713        0.91630        1.04085
| 35> C          0.48212        0.20617       -0.01103
| 36> C         -0.24686       -0.78848       -0.70952
| 37> C          0.54270        1.90483        1.73722
| 38> C          1.86011        2.19939        1.42756
| 39> C          2.54677        1.52533        0.40057
| 40> C          1.85280        0.51268       -0.33318
| 41> C          2.54840       -0.16349       -1.36658
| 42> C          3.91376        1.83263        0.08098
| 43> C          4.55608        1.12036       -0.96518
| 44> C          3.86746        0.13864       -1.66909
| 45> C          4.66835        2.82514        0.76523
| 46> C          5.99534        3.08429        0.41406
| 47> C          6.60431        2.37387       -0.61453
| 48> C          5.89152        1.39683       -1.30221
| 49> H         -5.26670       -0.30312        2.15208
| 50> H         -4.12789        1.45494        3.45686
| 51> H         -4.07411       -1.48512        0.35656
| 52> H         -1.83453        2.04922        3.00299
| 53> H         -2.08300       -1.84571       -0.95429
| 54> H          0.17421       -1.36555       -1.51054
| 55> H          0.10898        2.47564        2.53762
| 56> H          2.32077        2.97018        2.01773
| 57> H          2.10024       -0.93490       -1.96326
| 58> H          4.35846       -0.40545       -2.46840
| 59> H          4.26459        3.41294        1.56935
| 60> H          6.55471        3.84350        0.94584
| 61> H          7.63295        2.58115       -0.88006
| 62> H          6.38203        0.85280       -2.10122
| 63>  end
| 64> end
| 65>
| 66>
| 67>
| 68>                          ****END OF INPUT****
 Total Charge           Charge          ....    0
 Multiplicity           Mult            ....    1
 Number of Electrons    NEL             ....  146
FINAL SINGLE POINT ENERGY      -847.082073805576
FINAL SINGLE POINT ENERGY      -847.088220259549
FINAL SINGLE POINT ENERGY      -847.089643978625
FINAL SINGLE POINT ENERGY      -847.089847880478
FINAL SINGLE POINT ENERGY      -847.089899933586
FINAL SINGLE POINT ENERGY      -847.089905026703
                    ***********************HURRAY********************

CARTESIAN COORDINATES (ANGSTROEM)
---------------------------------
  C     -4.263371   -0.052820    1.947139
  C     -3.596085    0.948454    2.680956
  C     -3.595156   -0.714509    0.934830
  C     -2.248898   -0.404262    0.624278
  C     -1.564075    0.609299    1.365524
  C     -2.280078    1.269142    2.395031
  C     -1.554390   -1.086528   -0.418668
  C     -0.181864    0.914913    1.039245
  C      0.478639    0.210072   -0.007330
  C     -0.253714   -0.793521   -0.719413
  C      0.548946    1.911282    1.741277
  C      1.854402    2.202194    1.435228
  C      2.551550    1.523170    0.399718
  C      1.856856    0.515401   -0.328609
  C      2.555282   -0.173710   -1.371456
  C      3.933688    1.833813    0.077826
  C      4.583797    1.116693   -0.975077
  C      3.855658    0.112378   -1.680023
  C      4.682638    2.825200    0.759396
  C      5.997354    3.097363    0.421866
  C      6.630273    2.387571   -0.618212
  C      5.929496    1.412418   -1.301743
  H     -5.298890   -0.302102    2.178457
  H     -4.117782    1.474426    3.480764
  H     -4.097410   -1.492624    0.357140
  H     -1.794776    2.046596    2.982312
  H     -2.085540   -1.856548   -0.980839
  H      0.228880   -1.343533   -1.523962
  H      0.069530    2.465567    2.545633
  H      2.360570    2.976260    2.008601
  H      2.046171   -0.948477   -1.940068
  H      4.360434   -0.431463   -2.480273
  H      4.224529    3.393106    1.567134
  H      6.544993    3.867733    0.965279
  H      7.665009    2.608283   -0.880027
  H      6.404793    0.853764   -2.109985

 Multiplicity           Mult            ....    1
 Number of Electrons    NEL             ....  146
 Basis Dimension        Dim             ....  856

ORBITAL ENERGIES
----------------
                 SPIN UP ORBITALS
  NO   OCC          E(Eh)            E(eV)
   0   1.0000      -9.922813      -270.0135
   1   1.0000      -9.922573      -270.0069
   2   1.0000      -9.921751      -269.9846
   3   1.0000      -9.921732      -269.9840
   4   1.0000      -9.921509      -269.9780
   5   1.0000      -9.921499      -269.9777
   6   1.0000      -9.918045      -269.8837
   7   1.0000      -9.918010      -269.8828
   8   1.0000      -9.909448      -269.6498
   9   1.0000      -9.909443      -269.6497
  10   1.0000      -9.909180      -269.6425
  11   1.0000      -9.909149      -269.6417
  12   1.0000      -9.909112      -269.6406
  13   1.0000      -9.909088      -269.6400
  14   1.0000      -9.909016      -269.6380
  15   1.0000      -9.909008      -269.6378
  16   1.0000      -9.908726      -269.6301
  17   1.0000      -9.908631      -269.6275
  18   1.0000      -9.908615      -269.6271
  19   1.0000      -9.908532      -269.6249
  20   1.0000      -9.908514      -269.6244
  21   1.0000      -9.908270      -269.6177
  22   1.0000      -0.816929       -22.2298
  23   1.0000      -0.801358       -21.8061
  24   1.0000      -0.776686       -21.1347
  25   1.0000      -0.746048       -20.3010
  26   1.0000      -0.741244       -20.1703
  27   1.0000      -0.712449       -19.3867
  28   1.0000      -0.698419       -19.0050
  29   1.0000      -0.686786       -18.6884
  30   1.0000      -0.668146       -18.1812
  31   1.0000      -0.653380       -17.7794
  32   1.0000      -0.649549       -17.6751
  33   1.0000      -0.584344       -15.9008
  34   1.0000      -0.575596       -15.6628
  35   1.0000      -0.574311       -15.6278
  36   1.0000      -0.559297       -15.2192
  37   1.0000      -0.539966       -14.6932
  38   1.0000      -0.539078       -14.6691
  39   1.0000      -0.490872       -13.3573
  40   1.0000      -0.485500       -13.2111
  41   1.0000      -0.476218       -12.9586
  42   1.0000      -0.464371       -12.6362
  43   1.0000      -0.452055       -12.3010
  44   1.0000      -0.440778       -11.9942
  45   1.0000      -0.423217       -11.5163
  46   1.0000      -0.420094       -11.4313
  47   1.0000      -0.408150       -11.1063
  48   1.0000      -0.393571       -10.7096
  49   1.0000      -0.386806       -10.5255
  50   1.0000      -0.383709       -10.4413
  51   1.0000      -0.381958       -10.3936
  52   1.0000      -0.376305       -10.2398
  53   1.0000      -0.370726       -10.0880
  54   1.0000      -0.361831        -9.8459
  55   1.0000      -0.357860        -9.7379
  56   1.0000      -0.357629        -9.7316
  57   1.0000      -0.352538        -9.5930
  58   1.0000      -0.337291        -9.1782
  59   1.0000      -0.328651        -8.9431
  60   1.0000      -0.328451        -8.9376
  61   1.0000      -0.308409        -8.3922
  62   1.0000      -0.302518        -8.2319
  63   1.0000      -0.295766        -8.0482
  64   1.0000      -0.294357        -8.0099
  65   1.0000      -0.293721        -7.9926
  66   1.0000      -0.279895        -7.6163
  67   1.0000      -0.269081        -7.3221
  68   1.0000      -0.251566        -6.8454
  69   1.0000      -0.237959        -6.4752
  70   1.0000      -0.219796        -5.9810
  71   1.0000      -0.203840        -5.5468
  72   1.0000      -0.194029        -5.2798
  73   0.0000      -0.085991        -2.3399
  74   0.0000      -0.082780        -2.2526
  75   0.0000      -0.066524        -1.8102
  76   0.0000      -0.050421        -1.3720
  77   0.0000      -0.030482        -0.8295

                 SPIN DOWN ORBITALS
  NO   OCC          E(Eh)            E(eV)
   0   1.0000      -9.922813      -270.0135
   1   1.0000      -9.922573      -270.0069
   2   1.0000      -9.921751      -269.9846
   3   1.0000      -9.921732      -269.9840
   4   1.0000      -9.921509      -269.9780
   5   1.0000      -9.921499      -269.9777
   6   1.0000      -9.918045      -269.8837
   7   1.0000      -9.918010      -269.8828
   8   1.0000      -9.909448      -269.6498
   9   1.0000      -9.909443      -269.6497
  10   1.0000      -9.909180      -269.6425
  11   1.0000      -9.909149      -269.6417
  12   1.0000      -9.909112      -269.6406
  13   1.0000      -9.909088      -269.6400
  14   1.0000      -9.909016      -269.6380
  15   1.0000      -9.909008      -269.6378
  16   1.0000      -9.908726      -269.6301
  17   1.0000      -9.908631      -269.6275
  18   1.0000      -9.908615      -269.6271
  19   1.0000      -9.908532      -269.6249
  20   1.0000      -9.908514      -269.6244
  21   1.0000      -9.908270      -269.6177
  22   1.0000      -0.816929       -22.2298
  23   1.0000      -0.801358       -21.8061
  24   1.0000      -0.776686       -21.1347
  25   1.0000      -0.746048       -20.3010
  26   1.0000      -0.741244       -20.1703
  27   1.0000      -0.712449       -19.3867
  28   1.0000      -0.698419       -19.0050
  29   1.0000      -0.686786       -18.6884
  30   1.0000      -0.668146       -18.1812
  31   1.0000      -0.653380       -17.7794
  32   1.0000      -0.649549       -17.6751
  33   1.0000      -0.584344       -15.9008
  34   1.0000      -0.575596       -15.6628
  35   1.0000      -0.574311       -15.6278
  36   1.0000      -0.559297       -15.2192
  37   1.0000      -0.539966       -14.6932
  38   1.0000      -0.539078       -14.6691
  39   1.0000      -0.490872       -13.3573
  40   1.0000      -0.485500       -13.2111
  41   1.0000      -0.476218       -12.9586
  42   1.0000      -0.464371       -12.6362
  43   1.0000      -0.452055       -12.3010
  44   1.0000      -0.440778       -11.9942
  45   1.0000      -0.423217       -11.5163
  46   1.0000      -0.420094       -11.4313
  47   1.0000      -0.408150       -11.1063
  48   1.0000      -0.393571       -10.7096
  49   1.0000      -0.386806       -10.5255
  50   1.0000      -0.383709       -10.4413
  51   1.0000      -0.381958       -10.3936
  52   1.0000      -0.376305       -10.2398
  53   1.0000      -0.370726       -10.0880
  54   1.0000      -0.361831        -9.8459
  55   1.0000      -0.357860        -9.7379
  56   1.0000      -0.357629        -9.7316
  57   1.0000      -0.352538        -9.5930
  58   1.0000      -0.337291        -9.1782
  59   1.0000      -0.328651        -8.9431
  60   1.0000      -0.328451        -8.9376
  61   1.0000      -0.308409        -8.3922
  62   1.0000      -0.302518        -8.2319
  63   1.0000      -0.295766        -8.0482
  64   1.0000      -0.294357        -8.0099
  65   1.0000      -0.293721        -7.9926
  66   1.0000      -0.279895        -7.6163
  67   1.0000      -0.269081        -7.3221
  68   1.0000      -0.251566        -6.8454
  69   1.0000      -0.237959        -6.4752
  70   1.0000      -0.219796        -5.9810
  71   1.0000      -0.203840        -5.5468
  72   1.0000      -0.194029        -5.2798
  73   0.0000      -0.085991        -2.3399
  74   0.0000      -0.082780        -2.2526
  75   0.0000      -0.066524        -1.8102
  76   0.0000      -0.050421        -1.3720
  77   0.0000      -0.030482        -0.8295

MULLIKEN ATOMIC CHARGES AND SPIN POPULATIONS
--------------------------------------------
   0 C :   -0.125023    0.000000
   1 C :   -0.141584   -0.000000
   2 C :   -0.157545   -0.000000
   3 C :    0.089478    0.000000
   4 C :    0.110330   -0.000000
   5 C :   -0.148289   -0.000000
   6 C :   -0.174384   -0.000000
   7 C :    0.027625    0.000000
   8 C :    0.083171   -0.000000
   9 C :   -0.182210    0.000000
  10 C :   -0.175762    0.000000
  11 C :   -0.181754   -0.000000
  12 C :    0.030449    0.000000
  13 C :    0.086534    0.000000
  14 C :   -0.189845    0.000000
  15 C :    0.110302    0.000000
  16 C :    0.088109   -0.000000
  17 C :   -0.170904    0.000000
  18 C :   -0.141315   -0.000000
  19 C :   -0.146431    0.000000
  20 C :   -0.124044   -0.000000
  21 C :   -0.155249    0.000000
  22 H :    0.099879   -0.000000
  23 H :    0.120297    0.000000
  24 H :    0.114477    0.000000
  25 H :    0.116008   -0.000000
  26 H :    0.111814    0.000000
  27 H :    0.117213   -0.000000
  28 H :    0.114577    0.000000
  29 H :    0.116816   -0.000000
  30 H :    0.119659    0.000000
  31 H :    0.110635   -0.000000
  32 H :    0.113231   -0.000000
  33 H :    0.121545    0.000000
  34 H :    0.099996   -0.000000
  35 H :    0.112196    0.000000
Sum of atomic charges         :   -0.0000000

LOEWDIN ATOMIC CHARGES AND SPIN POPULATIONS
-------------------------------------------
   0 C :    0.026535   -0.000000
   1 C :    0.026187    0.000000
   2 C :    0.044201    0.000000
   3 C :   -0.042689    0.000000
   4 C :   -0.016743   -0.000000
   5 C :    0.046107   -0.000000
   6 C :    0.042050   -0.000000
   7 C :   -0.021121    0.000000
   8 C :   -0.018705   -0.000000
   9 C :    0.043498   -0.000000
  10 C :    0.044722   -0.000000
  11 C :    0.044486   -0.000000
  12 C :   -0.021145    0.000000
  13 C :   -0.018745   -0.000000
  14 C :    0.043253    0.000000
  15 C :   -0.016714    0.000000
  16 C :   -0.042650   -0.000000
  17 C :    0.042289    0.000000
  18 C :    0.046313   -0.000000
  19 C :    0.025922   -0.000000
  20 C :    0.026534    0.000000
  21 C :    0.044487   -0.000000
  22 H :   -0.024958   -0.000000
  23 H :   -0.024040    0.000000
  24 H :   -0.022426    0.000000
  25 H :   -0.028162   -0.000000
  26 H :   -0.020669    0.000000
  27 H :   -0.027656    0.000000
  28 H :   -0.026075    0.000000
  29 H :   -0.025971    0.000000
  30 H :   -0.027556    0.000000
  31 H :   -0.020794    0.000000
  32 H :   -0.028255   -0.000000
  33 H :   -0.023960    0.000000
  34 H :   -0.024972    0.000000
  35 H :   -0.022575    0.000000

  Mayer bond orders larger than 0.1
B(  0-C ,  1-C ) :   1.2760 B(  0-C ,  2-C ) :   1.4449 B(  0-C , 22-H ) :   0.9759
B(  1-C ,  5-C ) :   1.4252 B(  1-C , 23-H ) :   0.9797 B(  2-C ,  3-C ) :   1.2309
B(  2-C , 24-H ) :   0.9805 B(  3-C ,  4-C ) :   1.2195 B(  3-C ,  6-C ) :   1.1408
B(  4-C ,  5-C ) :   1.2626 B(  4-C ,  7-C ) :   1.1538 B(  5-C , 25-H ) :   0.9650
B(  6-C ,  9-C ) :   1.5128 B(  6-C , 26-H ) :   0.9913 B(  7-C ,  8-C ) :   1.2536
B(  7-C , 10-C ) :   1.2088 B(  8-C ,  9-C ) :   1.1723 B(  8-C , 13-C ) :   1.1661
B(  9-C , 27-H ) :   0.9715 B( 10-C , 11-C ) :   1.4721 B( 10-C , 28-H ) :   0.9771
B( 11-C , 12-C ) :   1.2060 B( 11-C , 29-H ) :   0.9771 B( 12-C , 13-C ) :   1.2534
B( 12-C , 15-C ) :   1.1545 B( 13-C , 14-C ) :   1.1698 B( 14-C , 17-C ) :   1.5152
B( 14-C , 30-H ) :   0.9716 B( 15-C , 16-C ) :   1.2178 B( 15-C , 18-C ) :   1.2627
B( 16-C , 17-C ) :   1.1423 B( 16-C , 21-C ) :   1.2323 B( 17-C , 31-H ) :   0.9912
B( 18-C , 19-C ) :   1.4231 B( 18-C , 32-H ) :   0.9656 B( 19-C , 20-C ) :   1.2733
B( 19-C , 33-H ) :   0.9805 B( 20-C , 21-C ) :   1.4467 B( 20-C , 34-H ) :   0.9759
B( 21-C , 35-H ) :   0.9810

FINAL SINGLE POINT ENERGY      -847.089905662711

DIPOLE MOMENT
-------------
                                X             Y             Z
Electronic contribution:     -0.01278      -0.69790      -0.72079
Nuclear contribution   :      0.01368       0.71029       0.73349
                        -----------------------------------------
Total Dipole Moment    :      0.00091       0.01238       0.01269
                        -----------------------------------------
Magnitude (a.u.)       :      0.01776
Magnitude (Debye)      :      0.04514

                             ****ORCA TERMINATED NORMALLY****
TOTAL RUN TIME: 0 days 1 hours 31 minutes 34 seconds 450 msec
